# vtk DataFile Version 3.0
output_2d.vtk
ASCII

DATASET UNSTRUCTURED_GRID
POINTS 90 double
289.3150024 736.7269897 0.0000000
293.6610107 735.1069946 0.0000000
296.8349915 736.6599731 0.0000000
297.9769897 738.9569702 0.0000000
288.1820068 741.1505127 0.0000000
297.9169922 741.3350220 0.0000000
296.7630005 743.4290161 0.0000000
294.7820129 744.7600098 0.0000000
292.3890076 745.0449829 0.0000000
289.2770081 743.2345581 0.0000000
288.6220093 787.4030151 0.0000000
287.8999939 790.0000000 0.0000000
288.6520081 792.6400146 0.0000000
296.6879883 810.0000000 0.0000000
284.5390015 810.0000000 0.0000000
269.5549927 805.2990112 0.0000000
268.0000000 793.6879883 0.0000000
268.0000000 772.0859985 0.0000000
268.0000000 761.4520264 0.0000000
268.0000000 751.5869751 0.0000000
268.0000000 731.5170288 0.0000000
271.9760132 722.0349731 0.0000000
292.0195007 720.0000000 0.0000000
304.8294983 720.0004883 0.0000000
314.6669922 723.0409546 0.0000000
318.0000000 734.6770020 0.0000000
318.0000000 748.3430176 0.0000000
318.0000000 757.2009888 0.0000000
318.0000000 768.0130005 0.0000000
318.0000000 773.0675049 0.0000000
318.0000000 787.2620239 0.0000000
317.9705200 797.7069702 0.0000000
288.1884766 738.8345337 0.0000000
291.3099976 735.3649902 0.0000000
295.8450012 735.9644775 0.0000000
297.4059753 737.8084717 0.0000000
297.9469910 740.1459961 0.0000000
297.3399963 742.3820190 0.0000000
295.7724915 744.0944824 0.0000000
293.5855103 744.9024658 0.0000000
291.2395020 744.6065063 0.0000000
289.5895081 786.4720459 0.0000000
291.8120117 785.2290039 0.0000000
295.5920105 785.6290283 0.0000000
297.7559814 788.7819824 0.0000000
297.7375183 791.3040161 0.0000000
296.4389954 793.4965210 0.0000000
294.2745056 794.7604980 0.0000000
291.8385010 794.7850342 0.0000000
268.0000000 783.0595093 0.0000000
268.0000000 740.1050415 0.0000000
282.2380066 720.0000000 0.0000000
298.5625000 720.0000000 0.0000000
310.4110107 720.6295166 0.0000000
317.9599915 729.4879761 0.0000000
318.0000000 741.0570068 0.0000000
318.0000000 752.7720337 0.0000000
318.0000000 762.6069946 0.0000000
318.0000000 778.1220093 0.0000000
308.0000000 810.0000000 0.0000000
279.9039917 742.3179932 0.0000000
305.9294891 748.2509766 0.0000000
299.7284851 760.9161377 0.0000000
302.9849854 729.8890381 0.0000000
286.5045776 728.6155090 0.0000000
307.2235336 741.6035309 0.0000000
304.8397369 754.7500000 0.0000000
286.2254791 771.5433044 0.0000000
301.8423157 777.0432739 0.0000000
281.8846588 778.8707886 0.0000000
305.5989838 794.2122192 0.0000000
281.8882446 731.0455627 0.0000000
305.6362457 731.8075562 0.0000000
307.3975067 734.7959900 0.0000000
307.0014038 745.1862183 0.0000000
307.1325073 738.0320129 0.0000000
303.5609894 757.0280151 0.0000000
279.6162567 735.6137695 0.0000000
279.2862701 790.2622681 0.0000000
292.1454010 727.9438782 0.0000000
294.3522949 801.1812134 0.0000000
305.9041061 751.6349792 0.0000000
300.3434906 728.9524841 0.0000000
305.8392334 787.9194946 0.0000000
279.8634186 784.5125580 0.0000000
284.3337555 753.7914734 0.0000000
296.6847534 728.5862122 0.0000000
286.8108215 800.1616211 0.0000000
281.1544952 796.1943054 0.0000000
300.9019165 799.8180237 0.0000000
CELLS 61 305
4 1 79 86 34
4 3 72 73 36
4 5 75 65 37
4 7 81 66 39
4 8 76 62 40
4 16 49 84 78
4 17 18 67 69
4 19 50 60 85
4 21 51 64 71
4 22 52 86 79
4 23 53 63 82
4 54 73 72 24
4 25 55 65 75
4 26 56 61 74
4 27 57 66 81
4 28 29 62 76
4 29 58 68 62
4 31 59 89 70
4 68 67 85 62
4 60 4 32 77
4 77 32 0 71
4 64 33 0 71
4 64 33 1 79
4 86 34 2 82
4 63 35 2 82
4 63 35 3 72
4 73 36 5 75
4 65 37 6 74
4 61 38 6 74
4 61 38 7 81
4 66 39 8 76
4 62 40 9 85
4 60 4 9 85
4 88 11 10 78
4 84 41 10 78
4 87 12 11 88
4 84 41 42 69
4 69 42 43 67
4 67 43 44 68
4 68 44 45 83
4 83 45 46 70
4 70 46 47 89
4 89 47 48 80
4 80 48 12 87
4 87 14 13 80
4 88 15 14 87
4 78 16 15 88
4 69 17 49 84
4 85 19 18 67
4 77 20 50 60
4 77 20 21 71
4 79 22 51 64
4 82 23 52 86
4 63 53 24 72
4 75 25 54 73
4 74 26 55 65
4 81 27 56 61
4 76 28 57 66
4 83 30 58 68
4 70 31 30 83
4 80 13 59 89
CELL_TYPES 61
9
9
9
9
9
9
9
9
9
9
9
9
9
9
9
9
9
9
9
9
9
9
9
9
9
9
9
9
9
9
9
9
9
9
9
9
9
9
9
9
9
9
9
9
9
9
9
9
9
9
9
9
9
9
9
9
9
9
9
9
9
POINT_DATA 90
SCALARS fixed int
LOOKUP_TABLE default
0
0
0
0
0
0
0
0
0
0
0
0
0
0
0
0
0
0
0
0
0
0
0
0
0
0
0
0
0
0
0
0
0
0
0
0
0
0
0
0
0
0
0
0
0
0
0
0
0
0
0
0
0
0
0
0
0
0
0
0
2
2
5
2
0
0
0
5
5
0
0
0
2
2
0
0
2
2
2
0
0
2
0
0
0
3
0
2
0
2
