# vtk DataFile Version 3.0
simplified_patch5_2D.vtk
ASCII

DATASET UNSTRUCTURED_GRID
POINTS 87 double
5.8705471 8.8503556 0.0000000
8.4527250 5.3019814 0.0000000
5.4316888 9.1364851 0.0000000
7.9793104 5.3075951 0.0000000
7.5962801 5.2779999 0.0000000
5.6136770 9.0585088 0.0000000
9.1956696 5.3231070 0.0000000
5.5433350 8.2938943 0.0000000
8.9696865 5.3155650 0.0000000
5.0161282 9.4259105 0.0000000
8.7039924 5.3011225 0.0000000
5.3131499 9.2225905 0.0000000
5.1000765 9.3594833 0.0000000
5.1899376 9.2941351 0.0000000
8.2326958 5.2935159 0.0000000
7.8002667 5.3099716 0.0000000
5.2285395 7.5663044 0.0000000
7.3710161 5.2650064 0.0000000
7.0377669 5.2212036 0.0000000
6.7221355 5.0912909 0.0000000
6.3713430 4.9641322 0.0000000
2.7929677 4.6519579 0.0000000
5.7958488 4.9725180 0.0000000
4.6729589 5.7140450 0.0000000
1.4512475 4.2281530 0.0000000
9.4179802 4.6054072 0.0000000
9.0388746 4.5900159 0.0000000
8.8190241 4.5618992 0.0000000
8.5991726 4.5337820 0.0000000
8.3971682 4.4896798 0.0000000
8.1951628 4.4455791 0.0000000
8.0103779 4.3884568 0.0000000
7.8255930 4.3313351 0.0000000
7.5099859 4.2068739 0.0000000
7.1167388 4.0107179 0.0000000
6.6903338 3.7442040 0.0000000
6.2639880 3.4103470 0.0000000
5.7316279 2.8616469 0.0000000
5.0427370 2.0700760 0.0000000
4.0569272 1.2215120 0.0000000
2.9298120 0.5791410 0.0000000
1.5271040 0.1314150 0.0000000
0.2123770 0.0005850 0.0000000
0.2123740 3.9618421 0.0000000
0.2123740 8.0814352 0.0000000
1.2686070 8.1036119 0.0000000
2.1756420 8.1563921 0.0000000
3.0087631 8.2327414 0.0000000
3.6932530 8.3161707 0.0000000
4.2270718 8.3940048 0.0000000
4.7885318 8.4881449 0.0000000
4.7885461 8.5732393 0.0000000
4.7885599 8.6583338 0.0000000
4.7885680 8.8178158 0.0000000
4.7885671 8.9561806 0.0000000
4.7885661 9.0788746 0.0000000
4.8050871 9.2344656 0.0000000
4.8384762 9.3569117 0.0000000
4.9551549 9.5086966 0.0000000
5.1063900 9.5983105 0.0000000
5.2361240 9.6217613 0.0000000
5.4073071 9.6297255 0.0000000
5.6060390 9.6297255 0.0000000
5.8548560 9.6297255 0.0000000
6.0850668 9.6297255 0.0000000
6.3376131 9.6297255 0.0000000
6.6114511 9.5798340 0.0000000
6.8494902 9.3309593 0.0000000
6.8848529 8.8673964 0.0000000
6.8848548 8.3581419 0.0000000
6.8854771 7.9295058 0.0000000
6.9372091 7.5233932 0.0000000
7.0332632 7.2057810 0.0000000
7.1706018 6.9458709 0.0000000
7.3085899 6.7536559 0.0000000
7.3893390 6.6535149 0.0000000
7.5550141 6.4926362 0.0000000
7.7325010 6.3568249 0.0000000
7.8709612 6.2737269 0.0000000
8.0273418 6.1970029 0.0000000
8.2389469 6.1174378 0.0000000
8.4909954 6.0614958 0.0000000
8.7521734 6.0374079 0.0000000
9.0718241 6.0354748 0.0000000
9.2449017 6.0354748 0.0000000
9.4179802 6.0354748 0.0000000
9.4179802 5.3122482 0.0000000
CELLS 55 275
4 25 86 6 26
4 28 10 1 29
4 30 14 3 31
4 32 15 4 33
4 34 17 18 35
4 36 19 20 37
4 38 22 23 39
4 40 21 24 41
4 42 41 24 43
4 85 84 6 86
4 82 81 1 10
4 80 79 3 14
4 78 77 4 15
4 76 75 18 17
4 74 73 20 19
4 72 71 23 22
4 71 70 16 23
4 70 69 7 16
4 69 68 0 7
4 65 64 2 5
4 63 62 13 11
4 61 60 9 12
4 55 54 13 12
4 53 52 2 11
4 44 43 24 45
4 46 21 23 47
4 47 23 16 48
4 8 27 26 6
4 10 28 27 8
4 14 30 29 1
4 15 32 31 3
4 17 34 33 4
4 19 36 35 18
4 22 38 37 20
4 21 40 39 23
4 21 46 45 24
4 7 49 48 16
4 5 51 50 0
4 5 51 52 2
4 11 53 54 13
4 12 55 56 9
4 12 61 62 13
4 11 63 64 2
4 5 65 66 0
4 22 72 73 20
4 19 74 75 18
4 17 76 77 4
4 15 78 79 3
4 14 80 81 1
4 10 82 83 8
4 8 83 84 6
4 68 0 66 67
4 60 9 58 59
4 58 9 56 57
4 50 49 7 0
CELL_TYPES 55
9
9
9
9
9
9
9
9
9
9
9
9
9
9
9
9
9
9
9
9
9
9
9
9
9
9
9
9
9
9
9
9
9
9
9
9
9
9
9
9
9
9
9
9
9
9
9
9
9
9
9
9
9
9
9
POINT_DATA 87
SCALARS fixed int
LOOKUP_TABLE default
5
0
0
0
0
0
0
0
0
0
0
0
0
0
0
0
0
0
0
0
0
0
0
6
0
1
0
0
0
0
0
0
0
0
0
0
0
0
0
0
0
0
1
0
1
0
0
0
0
0
0
0
0
0
0
0
0
1
0
1
0
0
0
0
0
0
0
1
0
0
0
0
0
0
0
0
0
0
0
0
0
0
0
0
0
1
0
