# vtk DataFile Version 3.0
simplified_patch7_2D.vtk
ASCII

DATASET UNSTRUCTURED_GRID
POINTS 126 double
1.1004445 4.0927035 0.0000000
1.5056945 4.5455864 0.0000000
4.3186675 5.8033919 0.0000000
4.6495804 2.1494792 0.0000000
3.1903465 2.9135190 0.0000000
4.2392271 5.4779739 0.0000000
4.8129046 1.2744555 0.0000000
4.7210622 1.7369380 0.0000000
4.5450466 2.4681229 0.0000000
4.2765610 3.2186401 0.0000000
3.2934845 4.2801560 0.0000000
3.2875910 3.8332689 0.0000000
3.6969946 4.1575127 0.0000000
4.2895587 4.0688319 0.0000000
4.8275175 0.4649590 0.0000000
4.8327632 0.2688380 0.0000000
1.4170864 4.5329254 0.0000000
4.8579701 0.8787600 0.0000000
3.7853315 5.2675180 0.0000000
2.6652420 3.9829420 0.0000000
4.1191357 4.8828731 0.0000000
3.4119689 3.2826619 0.0000000
1.4313274 3.8019620 0.0000000
3.6711988 4.6297238 0.0000000
4.1209538 4.4738073 0.0000000
3.8014591 4.4130092 0.0000000
3.5897680 3.0737235 0.0000000
3.8245543 3.5811228 0.0000000
3.6026785 3.5174901 0.0000000
3.6358774 3.7410881 0.0000000
3.5396555 3.9187470 0.0000000
5.5504360 0.0002640 0.0000000
4.1203780 0.0002640 0.0000000
4.1203780 0.1875710 0.0000000
4.1203780 0.3748770 0.0000000
4.1186080 0.5357940 0.0000000
4.1168389 0.6967110 0.0000000
4.1010652 0.8416940 0.0000000
4.0852928 0.9866760 0.0000000
4.0254011 1.2168200 0.0000000
3.9541819 1.4009380 0.0000000
3.8731191 1.5624740 0.0000000
3.7693319 1.7262380 0.0000000
3.6456971 1.8825560 0.0000000
3.5676179 1.9615639 0.0000000
3.4895389 2.0405710 0.0000000
3.3851969 2.1233389 0.0000000
3.1821110 2.2640400 0.0000000
2.8990960 2.4040360 0.0000000
2.5293150 2.5003581 0.0000000
2.1058900 2.5333941 0.0000000
1.5809510 2.5333941 0.0000000
1.0848610 2.5333941 0.0000000
0.5260870 3.2119110 0.0000000
0.5260880 3.8515260 0.0000000
0.6654850 4.4894810 0.0000000
0.8363050 4.5917192 0.0000000
1.0503000 4.6296840 0.0000000
1.4869469 4.6296840 0.0000000
1.6676450 4.6296840 0.0000000
1.6984150 4.8042040 0.0000000
1.7139860 4.8968658 0.0000000
1.7561330 5.1540418 0.0000000
2.1650081 5.1540418 0.0000000
2.4089639 5.1540418 0.0000000
2.7181880 5.1540418 0.0000000
2.8751690 5.1540418 0.0000000
3.0321500 5.1540418 0.0000000
3.2092659 5.1540418 0.0000000
3.3863821 5.1540418 0.0000000
3.3863809 5.4959359 0.0000000
3.3863800 5.8120661 0.0000000
3.3863800 6.0759640 0.0000000
4.3318272 6.0759640 0.0000000
4.9593248 6.0759640 0.0000000
4.9593248 5.8040938 0.0000000
4.9593248 5.5244532 0.0000000
4.9593248 5.1464152 0.0000000
5.5504389 5.1464152 0.0000000
5.5504389 4.5110898 0.0000000
5.5504389 3.9749720 0.0000000
5.5504389 3.3959539 0.0000000
5.5504379 2.9597299 0.0000000
5.5504379 2.7399750 0.0000000
5.5504379 2.5028820 0.0000000
5.5504379 2.2657881 0.0000000
5.5504370 2.0575640 0.0000000
5.5504370 1.8493410 0.0000000
5.5504370 1.5050510 0.0000000
5.5504360 1.1588380 0.0000000
5.5504360 0.9683500 0.0000000
5.5504360 0.7778620 0.0000000
5.5504360 0.5777200 0.0000000
5.5504360 0.3775770 0.0000000
4.8064041 0.0002640 0.0000000
1.7788125 4.5716405 0.0000000
1.9455690 5.1540418 0.0000000
4.8219700 0.6958360 0.0000000
4.8522220 1.0431110 0.0000000
4.7687492 1.5394580 0.0000000
4.6912358 1.9396007 0.0000000
4.5927869 2.2893968 0.0000000
4.4585481 2.7695980 0.0000000
3.0961040 3.3933910 0.0000000
1.9497063 4.1329407 0.0000000
1.2988740 4.4300450 0.0000000
1.2493140 4.6296840 0.0000000
1.4438210 4.3802786 0.0000000
0.8143415 4.1831389 0.0000000
1.5875100 4.3799031 0.0000000
1.4104735 4.4605415 0.0000000
3.8251215 5.7999471 0.0000000
3.8197031 6.0759640 0.0000000
3.1466445 4.7305141 0.0000000
3.4138880 4.8658127 0.0000000
2.9170489 4.6191612 0.0000000
1.9689485 4.7093603 0.0000000
3.7398041 5.0110116 0.0000000
3.3863809 5.3249888 0.0000000
3.7432740 5.5169239 0.0000000
1.7295570 4.9895272 0.0000000
1.8458780 4.8465760 0.0000000
4.2946162 5.1763501 0.0000000
4.9593248 5.3145580 0.0000000
3.6340595 5.3684151 0.0000000
3.9227560 5.1507385 0.0000000
CELLS 90 450
4 31 93 15 94
4 91 90 17 97
4 89 88 6 98
4 87 86 7 99
4 85 84 3 100
4 83 82 8 101
4 81 80 9 102
4 74 73 2 75
4 4 26 21 103
4 19 103 11 10
4 77 20 24 13
4 20 23 25 24
4 10 12 25 23
4 13 24 25 12
4 103 21 28 29
4 26 27 28 21
4 13 29 28 27
4 10 11 30 12
4 103 29 30 11
4 13 12 30 29
4 2 75 76 5
4 102 81 82 8
4 101 83 84 3
4 100 85 86 7
4 99 87 88 6
4 98 89 90 17
4 97 91 92 14
4 14 92 93 15
4 94 32 33 15
4 97 35 36 17
4 98 37 38 6
4 99 39 40 7
4 100 41 42 3
4 101 43 44 8
4 102 45 46 9
4 9 46 47 26
4 103 49 50 19
4 108 56 57 0
4 15 33 34 14
4 97 35 34 14
4 98 37 36 17
4 99 39 38 6
4 100 41 40 7
4 101 43 42 3
4 102 45 44 8
4 4 48 47 26
4 103 49 48 4
4 104 51 50 19
4 22 52 51 104
4 0 53 52 22
4 108 54 53 0
4 107 59 60 109
4 107 0 22 109
4 109 60 61 95
4 109 22 104 95
4 110 107 59 1
4 110 105 16 1
4 110 105 0 107
4 1 16 58 59
4 105 0 57 106
4 105 16 58 106
4 111 71 72 112
4 111 2 73 112
4 113 67 68 114
4 113 10 23 114
4 115 66 67 113
4 115 19 10 113
4 104 64 65 19
4 116 63 64 104
4 19 65 66 115
4 114 68 69 117
4 114 23 20 117
4 119 70 71 111
4 119 5 2 111
4 120 61 95 121
4 120 62 96 121
4 116 104 95 121
4 116 63 96 121
4 123 76 5 122
4 124 118 69 18
4 124 118 70 119
4 124 119 5 18
4 125 122 5 18
4 125 117 69 18
4 125 117 20 122
4 122 123 77 20
4 13 77 78 79
4 13 27 26 9
4 9 80 79 13
4 108 56 55 54
CELL_TYPES 90
9
9
9
9
9
9
9
9
9
9
9
9
9
9
9
9
9
9
9
9
9
9
9
9
9
9
9
9
9
9
9
9
9
9
9
9
9
9
9
9
9
9
9
9
9
9
9
9
9
9
9
9
9
9
9
9
9
9
9
9
9
9
9
9
9
9
9
9
9
9
9
9
9
9
9
9
9
9
9
9
9
9
9
9
9
9
9
9
9
9
POINT_DATA 126
SCALARS fixed int
LOOKUP_TABLE default
6
3
0
0
3
5
0
0
0
5
5
3
0
7
0
0
3
0
0
6
5
3
0
0
3
3
5
3
3
0
3
1
1
0
0
0
0
0
0
0
0
0
0
0
0
0
0
0
0
0
0
0
0
0
0
1
0
0
0
3
0
0
1
0
0
0
0
0
0
3
0
0
1
0
1
0
0
3
1
0
0
0
0
0
0
0
0
0
0
0
0
0
0
0
0
0
0
0
0
0
0
0
0
6
6
0
0
0
3
0
3
0
0
0
0
3
3
0
0
0
0
0
0
0
3
3
